<?xml version="1.0" encoding="UTF-8"?>

<!-- generated on 2022-08-24 15:25:19 by Eclipse SUMO GUI Version 1.12.0
<configuration xmlns:xsi="http://www.w3.org/2001/XMLSchema-instance" xsi:noNamespaceSchemaLocation="http://sumo.dlr.de/xsd/sumoConfiguration.xsd">

    <input>
        <net-file value="C:\Users\LYP\Desktop\my_mpc\sumo_uncontrol\MY.net.xml"/>
        <route-files value="C:\Users\LYP\Desktop\my_mpc\sumo_uncontrol\input_routes.rou.xml"/>
    </input>

    <output>
        <write-license value="true"/>
        <fcd-output value="C:\Users\LYP\Desktop\my_mpc\sumo_uncontrol\fcd.xml"/>
        <fcd-output.signals value="true"/>
    </output>

    <processing>
        <default.speeddev value="0"/>
    </processing>

    <report>
        <duration-log.disable value="true"/>
        <no-step-log value="true"/>
    </report>

    <traci_server>
        <remote-port value="8873"/>
    </traci_server>

    <gui_only>
        <start value="true"/>
    </gui_only>

</configuration>
-->

<fcd-export xmlns:xsi="http://www.w3.org/2001/XMLSchema-instance" xsi:noNamespaceSchemaLocation="http://sumo.dlr.de/xsd/fcd_file.xsd">
    <timestep time="0.00">
        <vehicle id="0" x="0.00" y="-2.00" angle="90.00" type="type1" speed="13.89" pos="5.10" lane="E0_0" slope="0.00" signals="0"/>
    </timestep>
    <timestep time="1.00">
        <vehicle id="0" x="14.36" y="-2.00" angle="90.00" type="type1" speed="14.36" pos="19.46" lane="E0_0" slope="0.00" signals="0"/>
    </timestep>
    <timestep time="2.00">
        <vehicle id="0" x="29.19" y="-2.00" angle="90.00" type="type1" speed="14.82" pos="34.29" lane="E0_0" slope="0.00" signals="0"/>
    </timestep>
    <timestep time="3.00">
        <vehicle id="0" x="44.45" y="-2.00" angle="90.00" type="type1" speed="15.26" pos="49.55" lane="E0_0" slope="0.00" signals="0"/>
    </timestep>
    <timestep time="4.00">
        <vehicle id="0" x="60.14" y="-2.00" angle="90.00" type="type1" speed="15.69" pos="65.24" lane="E0_0" slope="0.00" signals="0"/>
    </timestep>
    <timestep time="5.00">
        <vehicle id="0" x="76.24" y="-2.00" angle="90.00" type="type1" speed="16.10" pos="81.34" lane="E0_0" slope="0.00" signals="0"/>
    </timestep>
    <timestep time="6.00">
        <vehicle id="0" x="92.75" y="-2.00" angle="90.00" type="type1" speed="16.51" pos="97.85" lane="E0_0" slope="0.00" signals="0"/>
    </timestep>
    <timestep time="7.00">
        <vehicle id="0" x="109.67" y="-2.00" angle="90.00" type="type1" speed="16.92" pos="114.77" lane="E0_0" slope="0.00" signals="0"/>
    </timestep>
    <timestep time="8.00">
        <vehicle id="0" x="126.99" y="-2.00" angle="90.00" type="type1" speed="17.32" pos="132.09" lane="E0_0" slope="0.00" signals="0"/>
    </timestep>
    <timestep time="9.00">
        <vehicle id="0" x="144.72" y="-2.00" angle="90.00" type="type1" speed="17.72" pos="149.82" lane="E0_0" slope="0.00" signals="0"/>
    </timestep>
    <timestep time="10.00">
        <vehicle id="0" x="162.83" y="-2.00" angle="90.00" type="type1" speed="18.12" pos="167.93" lane="E0_0" slope="0.00" signals="0"/>
    </timestep>
    <timestep time="11.00">
        <vehicle id="0" x="181.34" y="-2.00" angle="90.00" type="type1" speed="18.51" pos="186.44" lane="E0_0" slope="0.00" signals="0"/>
    </timestep>
    <timestep time="12.00">
        <vehicle id="0" x="200.23" y="-2.00" angle="90.00" type="type1" speed="18.89" pos="205.33" lane="E0_0" slope="0.00" signals="0"/>
    </timestep>
    <timestep time="13.00">
        <vehicle id="0" x="219.49" y="-2.00" angle="90.00" type="type1" speed="19.26" pos="224.59" lane="E0_0" slope="0.00" signals="0"/>
    </timestep>
    <timestep time="14.00">
        <vehicle id="0" x="239.12" y="-2.00" angle="90.00" type="type1" speed="19.63" pos="244.22" lane="E0_0" slope="0.00" signals="0"/>
    </timestep>
    <timestep time="15.00">
        <vehicle id="0" x="259.11" y="-2.00" angle="90.00" type="type1" speed="19.99" pos="264.21" lane="E0_0" slope="0.00" signals="0"/>
    </timestep>
    <timestep time="16.00">
        <vehicle id="0" x="279.45" y="-2.00" angle="90.00" type="type1" speed="20.35" pos="284.55" lane="E0_0" slope="0.00" signals="0"/>
    </timestep>
    <timestep time="17.00">
        <vehicle id="0" x="300.15" y="-2.00" angle="90.00" type="type1" speed="20.69" pos="305.25" lane="E0_0" slope="0.00" signals="0"/>
    </timestep>
    <timestep time="18.00">
        <vehicle id="0" x="321.19" y="-2.00" angle="90.00" type="type1" speed="21.04" pos="326.29" lane="E0_0" slope="0.00" signals="0"/>
    </timestep>
    <timestep time="19.00">
        <vehicle id="0" x="342.56" y="-2.00" angle="90.00" type="type1" speed="21.37" pos="347.66" lane="E0_0" slope="0.00" signals="0"/>
    </timestep>
    <timestep time="20.00">
        <vehicle id="0" x="364.26" y="-2.00" angle="90.00" type="type1" speed="21.70" pos="369.36" lane="E0_0" slope="0.00" signals="0"/>
    </timestep>
    <timestep time="21.00">
        <vehicle id="0" x="386.29" y="-2.00" angle="90.00" type="type1" speed="22.03" pos="391.39" lane="E0_0" slope="0.00" signals="0"/>
    </timestep>
    <timestep time="22.00">
        <vehicle id="0" x="408.51" y="-2.00" angle="90.00" type="type1" speed="22.22" pos="413.61" lane="E0_0" slope="0.00" signals="0"/>
    </timestep>
    <timestep time="23.00">
        <vehicle id="0" x="430.73" y="-2.00" angle="90.00" type="type1" speed="22.22" pos="435.83" lane="E0_0" slope="0.00" signals="0"/>
    </timestep>
    <timestep time="24.00">
        <vehicle id="0" x="452.95" y="-2.00" angle="90.00" type="type1" speed="22.22" pos="458.05" lane="E0_0" slope="0.00" signals="0"/>
    </timestep>
    <timestep time="25.00">
        <vehicle id="0" x="475.17" y="-2.00" angle="90.00" type="type1" speed="22.22" pos="480.27" lane="E0_0" slope="0.00" signals="0"/>
    </timestep>
    <timestep time="26.00">
        <vehicle id="0" x="497.39" y="-2.00" angle="90.00" type="type1" speed="22.22" pos="502.49" lane="E0_0" slope="0.00" signals="0"/>
    </timestep>
    <timestep time="27.00">
        <vehicle id="0" x="519.61" y="-2.00" angle="90.00" type="type1" speed="22.22" pos="524.71" lane="E0_0" slope="0.00" signals="0"/>
    </timestep>
    <timestep time="28.00">
        <vehicle id="0" x="541.83" y="-2.00" angle="90.00" type="type1" speed="22.22" pos="546.93" lane="E0_0" slope="0.00" signals="0"/>
    </timestep>
    <timestep time="29.00">
        <vehicle id="0" x="564.05" y="-2.00" angle="90.00" type="type1" speed="22.22" pos="569.15" lane="E0_0" slope="0.00" signals="0"/>
    </timestep>
    <timestep time="30.00">
        <vehicle id="0" x="586.27" y="-2.00" angle="90.00" type="type1" speed="22.22" pos="591.37" lane="E0_0" slope="0.00" signals="0"/>
    </timestep>
    <timestep time="31.00">
        <vehicle id="0" x="608.49" y="-2.00" angle="90.00" type="type1" speed="22.22" pos="613.59" lane="E0_0" slope="0.00" signals="0"/>
    </timestep>
    <timestep time="32.00">
        <vehicle id="0" x="630.71" y="-2.00" angle="90.00" type="type1" speed="22.22" pos="635.81" lane="E0_0" slope="0.00" signals="0"/>
    </timestep>
    <timestep time="33.00">
        <vehicle id="0" x="652.93" y="-2.00" angle="90.00" type="type1" speed="22.22" pos="658.03" lane="E0_0" slope="0.00" signals="0"/>
    </timestep>
    <timestep time="34.00">
        <vehicle id="0" x="675.15" y="-2.00" angle="90.00" type="type1" speed="22.22" pos="680.25" lane="E0_0" slope="0.00" signals="0"/>
    </timestep>
    <timestep time="35.00">
        <vehicle id="0" x="697.37" y="-2.00" angle="90.00" type="type1" speed="22.22" pos="702.47" lane="E0_0" slope="0.00" signals="0"/>
    </timestep>
    <timestep time="36.00">
        <vehicle id="0" x="719.59" y="-2.00" angle="90.00" type="type1" speed="22.22" pos="724.69" lane="E0_0" slope="0.00" signals="0"/>
    </timestep>
    <timestep time="37.00">
        <vehicle id="0" x="741.81" y="-2.00" angle="90.00" type="type1" speed="22.22" pos="746.91" lane="E0_0" slope="0.00" signals="0"/>
    </timestep>
    <timestep time="38.00">
        <vehicle id="0" x="764.03" y="-2.00" angle="90.00" type="type1" speed="22.22" pos="769.13" lane="E0_0" slope="0.00" signals="0"/>
    </timestep>
    <timestep time="39.00">
        <vehicle id="0" x="786.25" y="-2.00" angle="90.00" type="type1" speed="22.22" pos="791.35" lane="E0_0" slope="0.00" signals="0"/>
    </timestep>
    <timestep time="40.00">
        <vehicle id="0" x="808.47" y="-2.00" angle="90.00" type="type1" speed="22.22" pos="813.57" lane="E0_0" slope="0.00" signals="0"/>
    </timestep>
    <timestep time="41.00">
        <vehicle id="0" x="830.69" y="-2.00" angle="90.00" type="type1" speed="22.22" pos="835.79" lane="E0_0" slope="0.00" signals="0"/>
    </timestep>
    <timestep time="42.00">
        <vehicle id="0" x="852.91" y="-2.00" angle="90.00" type="type1" speed="22.22" pos="858.01" lane="E0_0" slope="0.00" signals="0"/>
    </timestep>
    <timestep time="43.00">
        <vehicle id="0" x="875.13" y="-2.00" angle="90.00" type="type1" speed="22.22" pos="880.23" lane="E0_0" slope="0.00" signals="0"/>
    </timestep>
    <timestep time="44.00">
        <vehicle id="0" x="897.35" y="-2.00" angle="90.00" type="type1" speed="22.22" pos="902.45" lane="E0_0" slope="0.00" signals="0"/>
    </timestep>
    <timestep time="45.00">
        <vehicle id="0" x="919.57" y="-2.00" angle="90.00" type="type1" speed="22.22" pos="924.67" lane="E0_0" slope="0.00" signals="0"/>
    </timestep>
    <timestep time="46.00">
        <vehicle id="0" x="941.79" y="-2.00" angle="90.00" type="type1" speed="22.22" pos="946.89" lane="E0_0" slope="0.00" signals="0"/>
    </timestep>
    <timestep time="47.00">
        <vehicle id="0" x="964.01" y="-2.00" angle="90.00" type="type1" speed="22.22" pos="969.11" lane="E0_0" slope="0.00" signals="0"/>
    </timestep>
    <timestep time="48.00">
        <vehicle id="0" x="986.23" y="-2.00" angle="90.00" type="type1" speed="22.22" pos="991.33" lane="E0_0" slope="0.00" signals="0"/>
    </timestep>
    <timestep time="49.00">
        <vehicle id="0" x="1008.45" y="-2.00" angle="90.00" type="type1" speed="22.22" pos="1013.55" lane="E0_0" slope="0.00" signals="0"/>
    </timestep>
    <timestep time="50.00">
        <vehicle id="0" x="1030.67" y="-2.00" angle="90.00" type="type1" speed="22.22" pos="1035.77" lane="E0_0" slope="0.00" signals="0"/>
    </timestep>
    <timestep time="51.00">
        <vehicle id="0" x="1052.89" y="-2.00" angle="90.00" type="type1" speed="22.22" pos="1057.99" lane="E0_0" slope="0.00" signals="0"/>
    </timestep>
    <timestep time="52.00">
        <vehicle id="0" x="1075.11" y="-2.00" angle="90.00" type="type1" speed="22.22" pos="1080.21" lane="E0_0" slope="0.00" signals="0"/>
    </timestep>
    <timestep time="53.00">
        <vehicle id="0" x="1097.33" y="-2.00" angle="90.00" type="type1" speed="22.22" pos="1102.43" lane="E0_0" slope="0.00" signals="0"/>
    </timestep>
    <timestep time="54.00">
        <vehicle id="0" x="1119.54" y="-2.00" angle="90.00" type="type1" speed="22.21" pos="1124.64" lane="E0_0" slope="0.00" signals="0"/>
    </timestep>
    <timestep time="55.00">
        <vehicle id="0" x="1138.75" y="-2.00" angle="90.00" type="type1" speed="19.21" pos="1143.85" lane="E0_0" slope="0.00" signals="0"/>
    </timestep>
    <timestep time="56.00">
        <vehicle id="0" x="1154.96" y="-2.00" angle="90.00" type="type1" speed="16.21" pos="1160.06" lane="E0_0" slope="0.00" signals="8"/>
    </timestep>
    <timestep time="57.00">
        <vehicle id="0" x="1168.16" y="-2.00" angle="90.00" type="type1" speed="13.21" pos="1173.26" lane="E0_0" slope="0.00" signals="8"/>
    </timestep>
    <timestep time="58.00">
        <vehicle id="0" x="1178.37" y="-2.00" angle="90.00" type="type1" speed="10.21" pos="1183.47" lane="E0_0" slope="0.00" signals="8"/>
    </timestep>
    <timestep time="59.00">
        <vehicle id="0" x="1185.58" y="-2.00" angle="90.00" type="type1" speed="7.21" pos="1190.68" lane="E0_0" slope="0.00" signals="8"/>
    </timestep>
    <timestep time="60.00">
        <vehicle id="0" x="1189.79" y="-2.00" angle="90.00" type="type1" speed="4.21" pos="1194.89" lane="E0_0" slope="0.00" signals="8"/>
    </timestep>
    <timestep time="61.00">
        <vehicle id="0" x="1191.00" y="-2.00" angle="90.00" type="type1" speed="1.21" pos="1196.10" lane="E0_0" slope="0.00" signals="8"/>
    </timestep>
    <timestep time="62.00">
        <vehicle id="0" x="1191.00" y="-2.00" angle="90.00" type="type1" speed="0.00" pos="1196.10" lane="E0_0" slope="0.00" signals="8"/>
    </timestep>
    <timestep time="63.00">
        <vehicle id="0" x="1191.00" y="-2.00" angle="90.00" type="type1" speed="0.00" pos="1196.10" lane="E0_0" slope="0.00" signals="8"/>
    </timestep>
    <timestep time="64.00">
        <vehicle id="0" x="1191.00" y="-2.00" angle="90.00" type="type1" speed="0.00" pos="1196.10" lane="E0_0" slope="0.00" signals="8"/>
    </timestep>
    <timestep time="65.00">
        <vehicle id="0" x="1191.00" y="-2.00" angle="90.00" type="type1" speed="0.00" pos="1196.10" lane="E0_0" slope="0.00" signals="8"/>
    </timestep>
    <timestep time="66.00">
        <vehicle id="0" x="1191.00" y="-2.00" angle="90.00" type="type1" speed="0.00" pos="1196.10" lane="E0_0" slope="0.00" signals="8"/>
    </timestep>
    <timestep time="67.00">
        <vehicle id="0" x="1191.00" y="-2.00" angle="90.00" type="type1" speed="0.00" pos="1196.10" lane="E0_0" slope="0.00" signals="8"/>
    </timestep>
    <timestep time="68.00">
        <vehicle id="0" x="1191.00" y="-2.00" angle="90.00" type="type1" speed="0.00" pos="1196.10" lane="E0_0" slope="0.00" signals="8"/>
    </timestep>
    <timestep time="69.00">
        <vehicle id="0" x="1191.00" y="-2.00" angle="90.00" type="type1" speed="0.00" pos="1196.10" lane="E0_0" slope="0.00" signals="8"/>
    </timestep>
    <timestep time="70.00">
        <vehicle id="0" x="1191.00" y="-2.00" angle="90.00" type="type1" speed="0.00" pos="1196.10" lane="E0_0" slope="0.00" signals="8"/>
    </timestep>
    <timestep time="71.00">
        <vehicle id="0" x="1191.00" y="-2.00" angle="90.00" type="type1" speed="0.00" pos="1196.10" lane="E0_0" slope="0.00" signals="8"/>
    </timestep>
    <timestep time="72.00">
        <vehicle id="0" x="1191.00" y="-2.00" angle="90.00" type="type1" speed="0.00" pos="1196.10" lane="E0_0" slope="0.00" signals="8"/>
    </timestep>
    <timestep time="73.00">
        <vehicle id="0" x="1191.00" y="-2.00" angle="90.00" type="type1" speed="0.00" pos="1196.10" lane="E0_0" slope="0.00" signals="8"/>
    </timestep>
    <timestep time="74.00">
        <vehicle id="0" x="1191.00" y="-2.00" angle="90.00" type="type1" speed="0.00" pos="1196.10" lane="E0_0" slope="0.00" signals="8"/>
    </timestep>
    <timestep time="75.00">
        <vehicle id="0" x="1191.00" y="-2.00" angle="90.00" type="type1" speed="0.00" pos="1196.10" lane="E0_0" slope="0.00" signals="8"/>
    </timestep>
    <timestep time="76.00">
        <vehicle id="0" x="1191.00" y="-2.00" angle="90.00" type="type1" speed="0.00" pos="1196.10" lane="E0_0" slope="0.00" signals="8"/>
    </timestep>
    <timestep time="77.00">
        <vehicle id="0" x="1191.00" y="-2.00" angle="90.00" type="type1" speed="0.00" pos="1196.10" lane="E0_0" slope="0.00" signals="8"/>
    </timestep>
    <timestep time="78.00">
        <vehicle id="0" x="1191.00" y="-2.00" angle="90.00" type="type1" speed="0.00" pos="1196.10" lane="E0_0" slope="0.00" signals="8"/>
    </timestep>
    <timestep time="79.00">
        <vehicle id="0" x="1191.00" y="-2.00" angle="90.00" type="type1" speed="0.00" pos="1196.10" lane="E0_0" slope="0.00" signals="8"/>
    </timestep>
    <timestep time="80.00">
        <vehicle id="0" x="1191.00" y="-2.00" angle="90.00" type="type1" speed="0.00" pos="1196.10" lane="E0_0" slope="0.00" signals="8"/>
    </timestep>
    <timestep time="81.00">
        <vehicle id="0" x="1191.00" y="-2.00" angle="90.00" type="type1" speed="0.00" pos="1196.10" lane="E0_0" slope="0.00" signals="8"/>
    </timestep>
    <timestep time="82.00">
        <vehicle id="0" x="1191.00" y="-2.00" angle="90.00" type="type1" speed="0.00" pos="1196.10" lane="E0_0" slope="0.00" signals="8"/>
    </timestep>
    <timestep time="83.00">
        <vehicle id="0" x="1191.00" y="-2.00" angle="90.00" type="type1" speed="0.00" pos="1196.10" lane="E0_0" slope="0.00" signals="8"/>
    </timestep>
    <timestep time="84.00">
        <vehicle id="0" x="1191.00" y="-2.00" angle="90.00" type="type1" speed="0.00" pos="1196.10" lane="E0_0" slope="0.00" signals="8"/>
    </timestep>
    <timestep time="85.00">
        <vehicle id="0" x="1191.00" y="-2.00" angle="90.00" type="type1" speed="0.00" pos="1196.10" lane="E0_0" slope="0.00" signals="8"/>
    </timestep>
    <timestep time="86.00">
        <vehicle id="0" x="1191.00" y="-2.00" angle="90.00" type="type1" speed="0.00" pos="1196.10" lane="E0_0" slope="0.00" signals="8"/>
    </timestep>
    <timestep time="87.00">
        <vehicle id="0" x="1191.00" y="-2.00" angle="90.00" type="type1" speed="0.00" pos="1196.10" lane="E0_0" slope="0.00" signals="8"/>
    </timestep>
    <timestep time="88.00">
        <vehicle id="0" x="1191.00" y="-2.00" angle="90.00" type="type1" speed="0.00" pos="1196.10" lane="E0_0" slope="0.00" signals="8"/>
    </timestep>
    <timestep time="89.00">
        <vehicle id="0" x="1191.00" y="-2.00" angle="90.00" type="type1" speed="0.00" pos="1196.10" lane="E0_0" slope="0.00" signals="8"/>
    </timestep>
    <timestep time="90.00">
        <vehicle id="0" x="1191.80" y="-2.00" angle="90.00" type="type1" speed="0.80" pos="1196.90" lane="E0_0" slope="0.00" signals="0"/>
    </timestep>
    <timestep time="91.00">
        <vehicle id="0" x="1193.40" y="-2.00" angle="90.00" type="type1" speed="1.60" pos="1.40" lane=":J1_9_0" slope="0.00" signals="0"/>
    </timestep>
    <timestep time="92.00">
        <vehicle id="0" x="1195.80" y="-2.00" angle="90.00" type="type1" speed="2.40" pos="3.80" lane=":J1_9_0" slope="0.00" signals="0"/>
    </timestep>
    <timestep time="93.00">
        <vehicle id="0" x="1199.00" y="-2.00" angle="90.00" type="type1" speed="3.20" pos="7.00" lane=":J1_9_0" slope="0.00" signals="0"/>
    </timestep>
    <timestep time="94.00">
        <vehicle id="0" x="1203.00" y="-2.00" angle="90.00" type="type1" speed="4.00" pos="11.00" lane=":J1_9_0" slope="0.00" signals="0"/>
    </timestep>
    <timestep time="95.00">
        <vehicle id="0" x="1207.80" y="-2.00" angle="90.00" type="type1" speed="4.80" pos="15.80" lane=":J1_9_0" slope="0.00" signals="0"/>
    </timestep>
    <timestep time="96.00">
        <vehicle id="0" x="1213.40" y="-2.00" angle="90.00" type="type1" speed="5.60" pos="5.40" lane="E1_0" slope="0.00" signals="0"/>
    </timestep>
    <timestep time="97.00">
        <vehicle id="0" x="1219.80" y="-2.00" angle="90.00" type="type1" speed="6.40" pos="11.80" lane="E1_0" slope="0.00" signals="0"/>
    </timestep>
    <timestep time="98.00">
        <vehicle id="0" x="1227.00" y="-2.00" angle="90.00" type="type1" speed="7.20" pos="19.00" lane="E1_0" slope="0.00" signals="0"/>
    </timestep>
    <timestep time="99.00">
        <vehicle id="0" x="1235.00" y="-2.00" angle="90.00" type="type1" speed="8.00" pos="27.00" lane="E1_0" slope="0.00" signals="0"/>
    </timestep>
    <timestep time="100.00">
        <vehicle id="0" x="1243.80" y="-2.00" angle="90.00" type="type1" speed="8.80" pos="35.80" lane="E1_0" slope="0.00" signals="0"/>
    </timestep>
    <timestep time="101.00">
        <vehicle id="0" x="1253.37" y="-2.00" angle="90.00" type="type1" speed="9.57" pos="45.37" lane="E1_0" slope="0.00" signals="0"/>
    </timestep>
    <timestep time="102.00">
        <vehicle id="0" x="1263.66" y="-2.00" angle="90.00" type="type1" speed="10.29" pos="55.66" lane="E1_0" slope="0.00" signals="0"/>
    </timestep>
    <timestep time="103.00">
        <vehicle id="0" x="1274.61" y="-2.00" angle="90.00" type="type1" speed="10.95" pos="66.61" lane="E1_0" slope="0.00" signals="0"/>
    </timestep>
    <timestep time="104.00">
        <vehicle id="0" x="1286.19" y="-2.00" angle="90.00" type="type1" speed="11.57" pos="78.19" lane="E1_0" slope="0.00" signals="0"/>
    </timestep>
    <timestep time="105.00">
        <vehicle id="0" x="1298.35" y="-2.00" angle="90.00" type="type1" speed="12.16" pos="90.35" lane="E1_0" slope="0.00" signals="0"/>
    </timestep>
    <timestep time="106.00">
        <vehicle id="0" x="1311.06" y="-2.00" angle="90.00" type="type1" speed="12.71" pos="103.06" lane="E1_0" slope="0.00" signals="0"/>
    </timestep>
    <timestep time="107.00">
        <vehicle id="0" x="1324.30" y="-2.00" angle="90.00" type="type1" speed="13.24" pos="116.30" lane="E1_0" slope="0.00" signals="0"/>
    </timestep>
    <timestep time="108.00">
        <vehicle id="0" x="1338.04" y="-2.00" angle="90.00" type="type1" speed="13.74" pos="130.04" lane="E1_0" slope="0.00" signals="0"/>
    </timestep>
    <timestep time="109.00">
        <vehicle id="0" x="1352.27" y="-2.00" angle="90.00" type="type1" speed="14.22" pos="144.27" lane="E1_0" slope="0.00" signals="0"/>
    </timestep>
    <timestep time="110.00">
        <vehicle id="0" x="1366.95" y="-2.00" angle="90.00" type="type1" speed="14.69" pos="158.95" lane="E1_0" slope="0.00" signals="0"/>
    </timestep>
    <timestep time="111.00">
        <vehicle id="0" x="1382.09" y="-2.00" angle="90.00" type="type1" speed="15.13" pos="174.09" lane="E1_0" slope="0.00" signals="0"/>
    </timestep>
    <timestep time="112.00">
        <vehicle id="0" x="1397.65" y="-2.00" angle="90.00" type="type1" speed="15.56" pos="189.65" lane="E1_0" slope="0.00" signals="0"/>
    </timestep>
    <timestep time="113.00">
        <vehicle id="0" x="1413.63" y="-2.00" angle="90.00" type="type1" speed="15.98" pos="205.63" lane="E1_0" slope="0.00" signals="0"/>
    </timestep>
    <timestep time="114.00">
        <vehicle id="0" x="1430.02" y="-2.00" angle="90.00" type="type1" speed="16.39" pos="222.02" lane="E1_0" slope="0.00" signals="0"/>
    </timestep>
    <timestep time="115.00">
        <vehicle id="0" x="1446.81" y="-2.00" angle="90.00" type="type1" speed="16.80" pos="238.81" lane="E1_0" slope="0.00" signals="0"/>
    </timestep>
    <timestep time="116.00">
        <vehicle id="0" x="1464.02" y="-2.00" angle="90.00" type="type1" speed="17.20" pos="256.02" lane="E1_0" slope="0.00" signals="0"/>
    </timestep>
    <timestep time="117.00">
        <vehicle id="0" x="1481.62" y="-2.00" angle="90.00" type="type1" speed="17.60" pos="273.62" lane="E1_0" slope="0.00" signals="0"/>
    </timestep>
    <timestep time="118.00">
        <vehicle id="0" x="1499.62" y="-2.00" angle="90.00" type="type1" speed="18.00" pos="291.62" lane="E1_0" slope="0.00" signals="0"/>
    </timestep>
    <timestep time="119.00">
        <vehicle id="0" x="1518.01" y="-2.00" angle="90.00" type="type1" speed="18.39" pos="310.01" lane="E1_0" slope="0.00" signals="0"/>
    </timestep>
    <timestep time="120.00">
        <vehicle id="0" x="1536.78" y="-2.00" angle="90.00" type="type1" speed="18.77" pos="328.78" lane="E1_0" slope="0.00" signals="0"/>
    </timestep>
    <timestep time="121.00">
        <vehicle id="0" x="1555.93" y="-2.00" angle="90.00" type="type1" speed="19.15" pos="347.93" lane="E1_0" slope="0.00" signals="0"/>
    </timestep>
    <timestep time="122.00">
        <vehicle id="0" x="1575.45" y="-2.00" angle="90.00" type="type1" speed="19.52" pos="367.45" lane="E1_0" slope="0.00" signals="0"/>
    </timestep>
    <timestep time="123.00">
        <vehicle id="0" x="1595.34" y="-2.00" angle="90.00" type="type1" speed="19.88" pos="387.34" lane="E1_0" slope="0.00" signals="0"/>
    </timestep>
    <timestep time="124.00">
        <vehicle id="0" x="1615.58" y="-2.00" angle="90.00" type="type1" speed="20.24" pos="407.58" lane="E1_0" slope="0.00" signals="0"/>
    </timestep>
    <timestep time="125.00">
        <vehicle id="0" x="1636.17" y="-2.00" angle="90.00" type="type1" speed="20.59" pos="428.17" lane="E1_0" slope="0.00" signals="0"/>
    </timestep>
    <timestep time="126.00">
        <vehicle id="0" x="1657.10" y="-2.00" angle="90.00" type="type1" speed="20.93" pos="449.10" lane="E1_0" slope="0.00" signals="0"/>
    </timestep>
    <timestep time="127.00">
        <vehicle id="0" x="1678.37" y="-2.00" angle="90.00" type="type1" speed="21.27" pos="470.37" lane="E1_0" slope="0.00" signals="0"/>
    </timestep>
    <timestep time="128.00">
        <vehicle id="0" x="1699.98" y="-2.00" angle="90.00" type="type1" speed="21.61" pos="491.98" lane="E1_0" slope="0.00" signals="0"/>
    </timestep>
    <timestep time="129.00">
        <vehicle id="0" x="1721.91" y="-2.00" angle="90.00" type="type1" speed="21.93" pos="513.91" lane="E1_0" slope="0.00" signals="0"/>
    </timestep>
    <timestep time="130.00">
        <vehicle id="0" x="1744.13" y="-2.00" angle="90.00" type="type1" speed="22.22" pos="536.13" lane="E1_0" slope="0.00" signals="0"/>
    </timestep>
    <timestep time="131.00">
        <vehicle id="0" x="1766.35" y="-2.00" angle="90.00" type="type1" speed="22.22" pos="558.35" lane="E1_0" slope="0.00" signals="0"/>
    </timestep>
    <timestep time="132.00">
        <vehicle id="0" x="1788.57" y="-2.00" angle="90.00" type="type1" speed="22.22" pos="580.57" lane="E1_0" slope="0.00" signals="0"/>
    </timestep>
    <timestep time="133.00">
        <vehicle id="0" x="1810.79" y="-2.00" angle="90.00" type="type1" speed="22.22" pos="602.79" lane="E1_0" slope="0.00" signals="0"/>
    </timestep>
    <timestep time="134.00">
        <vehicle id="0" x="1833.01" y="-2.00" angle="90.00" type="type1" speed="22.22" pos="625.01" lane="E1_0" slope="0.00" signals="0"/>
    </timestep>
    <timestep time="135.00">
        <vehicle id="0" x="1855.23" y="-2.00" angle="90.00" type="type1" speed="22.22" pos="647.23" lane="E1_0" slope="0.00" signals="0"/>
    </timestep>
    <timestep time="136.00">
        <vehicle id="0" x="1877.45" y="-2.00" angle="90.00" type="type1" speed="22.22" pos="669.45" lane="E1_0" slope="0.00" signals="0"/>
    </timestep>
    <timestep time="137.00">
        <vehicle id="0" x="1899.67" y="-2.00" angle="90.00" type="type1" speed="22.22" pos="691.67" lane="E1_0" slope="0.00" signals="0"/>
    </timestep>
    <timestep time="138.00">
        <vehicle id="0" x="1921.89" y="-2.00" angle="90.00" type="type1" speed="22.22" pos="713.89" lane="E1_0" slope="0.00" signals="0"/>
    </timestep>
    <timestep time="139.00">
        <vehicle id="0" x="1944.11" y="-2.00" angle="90.00" type="type1" speed="22.22" pos="736.11" lane="E1_0" slope="0.00" signals="0"/>
    </timestep>
    <timestep time="140.00">
        <vehicle id="0" x="1966.33" y="-2.00" angle="90.00" type="type1" speed="22.22" pos="758.33" lane="E1_0" slope="0.00" signals="0"/>
    </timestep>
    <timestep time="141.00">
        <vehicle id="0" x="1988.55" y="-2.00" angle="90.00" type="type1" speed="22.22" pos="780.55" lane="E1_0" slope="0.00" signals="0"/>
    </timestep>
    <timestep time="142.00">
        <vehicle id="0" x="2010.77" y="-2.00" angle="90.00" type="type1" speed="22.22" pos="802.77" lane="E1_0" slope="0.00" signals="0"/>
    </timestep>
    <timestep time="143.00">
        <vehicle id="0" x="2032.99" y="-2.00" angle="90.00" type="type1" speed="22.22" pos="824.99" lane="E1_0" slope="0.00" signals="0"/>
    </timestep>
    <timestep time="144.00">
        <vehicle id="0" x="2055.21" y="-2.00" angle="90.00" type="type1" speed="22.22" pos="847.21" lane="E1_0" slope="0.00" signals="0"/>
    </timestep>
    <timestep time="145.00">
        <vehicle id="0" x="2077.43" y="-2.00" angle="90.00" type="type1" speed="22.22" pos="869.43" lane="E1_0" slope="0.00" signals="0"/>
    </timestep>
    <timestep time="146.00">
        <vehicle id="0" x="2099.65" y="-2.00" angle="90.00" type="type1" speed="22.22" pos="891.65" lane="E1_0" slope="0.00" signals="0"/>
    </timestep>
    <timestep time="147.00">
        <vehicle id="0" x="2121.87" y="-2.00" angle="90.00" type="type1" speed="22.22" pos="913.87" lane="E1_0" slope="0.00" signals="0"/>
    </timestep>
    <timestep time="148.00">
        <vehicle id="0" x="2144.09" y="-2.00" angle="90.00" type="type1" speed="22.22" pos="936.09" lane="E1_0" slope="0.00" signals="0"/>
    </timestep>
    <timestep time="149.00">
        <vehicle id="0" x="2166.31" y="-2.00" angle="90.00" type="type1" speed="22.22" pos="958.31" lane="E1_0" slope="0.00" signals="0"/>
    </timestep>
    <timestep time="150.00">
        <vehicle id="0" x="2188.53" y="-2.00" angle="90.00" type="type1" speed="22.22" pos="980.53" lane="E1_0" slope="0.00" signals="0"/>
    </timestep>
    <timestep time="151.00">
        <vehicle id="0" x="2210.75" y="-2.00" angle="90.00" type="type1" speed="22.22" pos="2.75" lane="E2_0" slope="0.00" signals="0"/>
    </timestep>
    <timestep time="152.00">
        <vehicle id="0" x="2232.97" y="-2.00" angle="90.00" type="type1" speed="22.22" pos="24.97" lane="E2_0" slope="0.00" signals="0"/>
    </timestep>
    <timestep time="153.00">
        <vehicle id="0" x="2255.19" y="-2.00" angle="90.00" type="type1" speed="22.22" pos="47.19" lane="E2_0" slope="0.00" signals="0"/>
    </timestep>
    <timestep time="154.00">
        <vehicle id="0" x="2277.41" y="-2.00" angle="90.00" type="type1" speed="22.22" pos="69.41" lane="E2_0" slope="0.00" signals="0"/>
    </timestep>
    <timestep time="155.00">
        <vehicle id="0" x="2299.63" y="-2.00" angle="90.00" type="type1" speed="22.22" pos="91.63" lane="E2_0" slope="0.00" signals="0"/>
    </timestep>
    <timestep time="156.00">
        <vehicle id="0" x="2321.85" y="-2.00" angle="90.00" type="type1" speed="22.22" pos="113.85" lane="E2_0" slope="0.00" signals="0"/>
    </timestep>
    <timestep time="157.00">