<?xml version="1.0" encoding="UTF-8"?>

<!-- generated on 2022-08-24 14:40:54 by Eclipse SUMO GUI Version 1.12.0
<configuration xmlns:xsi="http://www.w3.org/2001/XMLSchema-instance" xsi:noNamespaceSchemaLocation="http://sumo.dlr.de/xsd/sumoConfiguration.xsd">

    <input>
        <net-file value="C:\Users\LYP\Desktop\my_mpc\sumo_paper\NEXT.net.xml"/>
        <route-files value="C:\Users\LYP\Desktop\my_mpc\sumo_paper\input_routes.rou.xml"/>
    </input>

    <output>
        <write-license value="true"/>
        <fcd-output value="C:\Users\LYP\Desktop\my_mpc\sumo_paper\fcd.xml"/>
        <fcd-output.signals value="true"/>
    </output>

    <processing>
        <default.speeddev value="0"/>
    </processing>

    <report>
        <duration-log.disable value="true"/>
        <no-step-log value="true"/>
    </report>

    <traci_server>
        <remote-port value="8873"/>
    </traci_server>

    <gui_only>
        <start value="true"/>
    </gui_only>

</configuration>
-->

<fcd-export xmlns:xsi="http://www.w3.org/2001/XMLSchema-instance" xsi:noNamespaceSchemaLocation="http://sumo.dlr.de/xsd/fcd_file.xsd">
    <timestep time="0.00">
        <vehicle id="0" x="5.10" y="-1.60" angle="90.00" type="type1" speed="13.89" pos="5.10" lane="E0_0" slope="0.00" signals="0"/>
    </timestep>
    <timestep time="1.00">
        <vehicle id="0" x="18.52" y="-1.60" angle="90.00" type="type1" speed="13.42" pos="18.52" lane="E0_0" slope="0.00" signals="0"/>
    </timestep>
    <timestep time="2.00">
        <vehicle id="0" x="31.76" y="-1.60" angle="90.00" type="type1" speed="13.24" pos="31.76" lane="E0_0" slope="0.00" signals="0"/>
    </timestep>
    <timestep time="3.00">
        <vehicle id="0" x="44.91" y="-1.60" angle="90.00" type="type1" speed="13.15" pos="44.91" lane="E0_0" slope="0.00" signals="0"/>
    </timestep>
    <timestep time="4.00">
        <vehicle id="0" x="57.97" y="-1.60" angle="90.00" type="type1" speed="13.06" pos="57.97" lane="E0_0" slope="0.00" signals="0"/>
    </timestep>
    <timestep time="5.00">
        <vehicle id="0" x="70.95" y="-1.60" angle="90.00" type="type1" speed="12.98" pos="70.95" lane="E0_0" slope="0.00" signals="0"/>
    </timestep>
    <timestep time="6.00">
        <vehicle id="0" x="83.86" y="-1.60" angle="90.00" type="type1" speed="12.91" pos="83.86" lane="E0_0" slope="0.00" signals="0"/>
    </timestep>
    <timestep time="7.00">
        <vehicle id="0" x="96.71" y="-1.60" angle="90.00" type="type1" speed="12.85" pos="96.71" lane="E0_0" slope="0.00" signals="0"/>
    </timestep>
    <timestep time="8.00">
        <vehicle id="0" x="109.50" y="-1.60" angle="90.00" type="type1" speed="12.79" pos="109.50" lane="E0_0" slope="0.00" signals="0"/>
    </timestep>
    <timestep time="9.00">
        <vehicle id="0" x="122.23" y="-1.60" angle="90.00" type="type1" speed="12.74" pos="122.23" lane="E0_0" slope="0.00" signals="0"/>
    </timestep>
    <timestep time="10.00">
        <vehicle id="0" x="134.92" y="-1.60" angle="90.00" type="type1" speed="12.69" pos="134.92" lane="E0_0" slope="0.00" signals="0"/>
    </timestep>
    <timestep time="11.00">
        <vehicle id="0" x="147.56" y="-1.60" angle="90.00" type="type1" speed="12.64" pos="147.56" lane="E0_0" slope="0.00" signals="0"/>
    </timestep>
    <timestep time="12.00">
        <vehicle id="0" x="160.17" y="-1.60" angle="90.00" type="type1" speed="12.61" pos="160.17" lane="E0_0" slope="0.00" signals="0"/>
    </timestep>
    <timestep time="13.00">
        <vehicle id="0" x="172.74" y="-1.60" angle="90.00" type="type1" speed="12.57" pos="172.74" lane="E0_0" slope="0.00" signals="0"/>
    </timestep>
    <timestep time="14.00">
        <vehicle id="0" x="185.28" y="-1.60" angle="90.00" type="type1" speed="12.54" pos="185.28" lane="E0_0" slope="0.00" signals="0"/>
    </timestep>
    <timestep time="15.00">
        <vehicle id="0" x="197.79" y="-1.60" angle="90.00" type="type1" speed="12.51" pos="197.79" lane="E0_0" slope="0.00" signals="0"/>
    </timestep>
    <timestep time="16.00">
        <vehicle id="0" x="210.28" y="-1.60" angle="90.00" type="type1" speed="12.49" pos="210.28" lane="E0_0" slope="0.00" signals="0"/>
    </timestep>
    <timestep time="17.00">
        <vehicle id="0" x="222.74" y="-1.60" angle="90.00" type="type1" speed="12.46" pos="222.74" lane="E0_0" slope="0.00" signals="0"/>
    </timestep>
    <timestep time="18.00">
        <vehicle id="0" x="235.18" y="-1.60" angle="90.00" type="type1" speed="12.44" pos="235.18" lane="E0_0" slope="0.00" signals="0"/>
    </timestep>
    <timestep time="19.00">
        <vehicle id="0" x="247.60" y="-1.60" angle="90.00" type="type1" speed="12.42" pos="247.60" lane="E0_0" slope="0.00" signals="0"/>
    </timestep>
    <timestep time="20.00">
        <vehicle id="0" x="260.01" y="-1.60" angle="90.00" type="type1" speed="12.41" pos="260.01" lane="E0_0" slope="0.00" signals="0"/>
    </timestep>
    <timestep time="21.00">
        <vehicle id="0" x="272.40" y="-1.60" angle="90.00" type="type1" speed="12.39" pos="272.40" lane="E0_0" slope="0.00" signals="0"/>
    </timestep>
    <timestep time="22.00">
        <vehicle id="0" x="284.78" y="-1.60" angle="90.00" type="type1" speed="12.38" pos="284.78" lane="E0_0" slope="0.00" signals="0"/>
    </timestep>
    <timestep time="23.00">
        <vehicle id="0" x="297.15" y="-1.60" angle="90.00" type="type1" speed="12.37" pos="297.15" lane="E0_0" slope="0.00" signals="0"/>
    </timestep>
    <timestep time="24.00">
        <vehicle id="0" x="309.51" y="-1.60" angle="90.00" type="type1" speed="12.36" pos="309.51" lane="E0_0" slope="0.00" signals="0"/>
    </timestep>
    <timestep time="25.00">
        <vehicle id="0" x="321.86" y="-1.60" angle="90.00" type="type1" speed="12.35" pos="321.86" lane="E0_0" slope="0.00" signals="0"/>
    </timestep>
    <timestep time="26.00">
        <vehicle id="0" x="334.21" y="-1.60" angle="90.00" type="type1" speed="12.35" pos="334.21" lane="E0_0" slope="0.00" signals="0"/>
    </timestep>
    <timestep time="27.00">
        <vehicle id="0" x="346.55" y="-1.60" angle="90.00" type="type1" speed="12.35" pos="346.55" lane="E0_0" slope="0.00" signals="0"/>
    </timestep>
    <timestep time="28.00">
        <vehicle id="0" x="358.90" y="-1.60" angle="90.00" type="type1" speed="12.35" pos="358.90" lane="E0_0" slope="0.00" signals="0"/>
    </timestep>
    <timestep time="29.00">
        <vehicle id="0" x="371.26" y="-1.60" angle="90.00" type="type1" speed="12.35" pos="371.26" lane="E0_0" slope="0.00" signals="0"/>
    </timestep>
    <timestep time="30.00">
        <vehicle id="0" x="383.61" y="-1.60" angle="90.00" type="type1" speed="12.36" pos="383.61" lane="E0_0" slope="0.00" signals="0"/>
    </timestep>
    <timestep time="31.00">
        <vehicle id="0" x="395.98" y="-1.60" angle="90.00" type="type1" speed="12.36" pos="395.98" lane="E0_0" slope="0.00" signals="0"/>
    </timestep>
    <timestep time="32.00">
        <vehicle id="0" x="408.34" y="-1.60" angle="90.00" type="type1" speed="12.37" pos="408.34" lane="E0_0" slope="0.00" signals="0"/>
    </timestep>
    <timestep time="33.00">
        <vehicle id="0" x="420.71" y="-1.60" angle="90.00" type="type1" speed="12.37" pos="420.71" lane="E0_0" slope="0.00" signals="0"/>
    </timestep>
    <timestep time="34.00">
        <vehicle id="0" x="433.09" y="-1.60" angle="90.00" type="type1" speed="12.38" pos="433.09" lane="E0_0" slope="0.00" signals="0"/>
    </timestep>
    <timestep time="35.00">
        <vehicle id="0" x="445.47" y="-1.60" angle="90.00" type="type1" speed="12.38" pos="445.47" lane="E0_0" slope="0.00" signals="0"/>
    </timestep>
    <timestep time="36.00">
        <vehicle id="0" x="457.85" y="-1.60" angle="90.00" type="type1" speed="12.38" pos="457.85" lane="E0_0" slope="0.00" signals="0"/>
    </timestep>
    <timestep time="37.00">
        <vehicle id="0" x="470.24" y="-1.60" angle="90.00" type="type1" speed="12.39" pos="470.24" lane="E0_0" slope="0.00" signals="0"/>
    </timestep>
    <timestep time="38.00">
        <vehicle id="0" x="482.64" y="-1.60" angle="90.00" type="type1" speed="12.40" pos="482.64" lane="E0_0" slope="0.00" signals="0"/>
    </timestep>
    <timestep time="39.00">
        <vehicle id="0" x="495.04" y="-1.60" angle="90.00" type="type1" speed="12.40" pos="495.04" lane="E0_0" slope="0.00" signals="0"/>
    </timestep>
    <timestep time="40.00">
        <vehicle id="0" x="507.45" y="-1.60" angle="90.00" type="type1" speed="12.41" pos="507.45" lane="E0_0" slope="0.00" signals="0"/>
    </timestep>
    <timestep time="41.00">
        <vehicle id="0" x="519.86" y="-1.60" angle="90.00" type="type1" speed="12.41" pos="519.86" lane="E0_0" slope="0.00" signals="0"/>
    </timestep>
    <timestep time="42.00">
        <vehicle id="0" x="532.28" y="-1.60" angle="90.00" type="type1" speed="12.42" pos="532.28" lane="E0_0" slope="0.00" signals="0"/>
    </timestep>
    <timestep time="43.00">
        <vehicle id="0" x="544.71" y="-1.60" angle="90.00" type="type1" speed="12.43" pos="544.71" lane="E0_0" slope="0.00" signals="0"/>
    </timestep>
    <timestep time="44.00">
        <vehicle id="0" x="557.14" y="-1.60" angle="90.00" type="type1" speed="12.43" pos="557.14" lane="E0_0" slope="0.00" signals="0"/>
    </timestep>
    <timestep time="45.00">
        <vehicle id="0" x="569.59" y="-1.60" angle="90.00" type="type1" speed="12.44" pos="569.59" lane="E0_0" slope="0.00" signals="0"/>
    </timestep>
    <timestep time="46.00">
        <vehicle id="0" x="582.04" y="-1.60" angle="90.00" type="type1" speed="12.45" pos="582.04" lane="E0_0" slope="0.00" signals="0"/>
    </timestep>
    <timestep time="47.00">
        <vehicle id="0" x="594.50" y="-1.60" angle="90.00" type="type1" speed="12.46" pos="594.50" lane="E0_0" slope="0.00" signals="0"/>
    </timestep>
    <timestep time="48.00">
        <vehicle id="0" x="606.96" y="-1.60" angle="90.00" type="type1" speed="12.47" pos="606.96" lane="E0_0" slope="0.00" signals="0"/>
    </timestep>
    <timestep time="49.00">
        <vehicle id="0" x="619.44" y="-1.60" angle="90.00" type="type1" speed="12.48" pos="619.44" lane="E0_0" slope="0.00" signals="0"/>
    </timestep>
    <timestep time="50.00">
        <vehicle id="0" x="631.93" y="-1.60" angle="90.00" type="type1" speed="12.49" pos="631.93" lane="E0_0" slope="0.00" signals="0"/>
    </timestep>
    <timestep time="51.00">
        <vehicle id="0" x="644.43" y="-1.60" angle="90.00" type="type1" speed="12.50" pos="644.43" lane="E0_0" slope="0.00" signals="0"/>
    </timestep>
    <timestep time="52.00">
        <vehicle id="0" x="656.94" y="-1.60" angle="90.00" type="type1" speed="12.51" pos="656.94" lane="E0_0" slope="0.00" signals="0"/>
    </timestep>
    <timestep time="53.00">
        <vehicle id="0" x="669.46" y="-1.60" angle="90.00" type="type1" speed="12.52" pos="669.46" lane="E0_0" slope="0.00" signals="0"/>
    </timestep>
    <timestep time="54.00">
        <vehicle id="0" x="682.00" y="-1.60" angle="90.00" type="type1" speed="12.54" pos="682.00" lane="E0_0" slope="0.00" signals="0"/>
    </timestep>
    <timestep time="55.00">
        <vehicle id="0" x="694.55" y="-1.60" angle="90.00" type="type1" speed="12.55" pos="694.55" lane="E0_0" slope="0.00" signals="0"/>
    </timestep>
    <timestep time="56.00">
        <vehicle id="0" x="707.11" y="-1.60" angle="90.00" type="type1" speed="12.56" pos="707.11" lane="E0_0" slope="0.00" signals="0"/>
    </timestep>
    <timestep time="57.00">
        <vehicle id="0" x="719.69" y="-1.60" angle="90.00" type="type1" speed="12.58" pos="719.69" lane="E0_0" slope="0.00" signals="0"/>
    </timestep>
    <timestep time="58.00">
        <vehicle id="0" x="732.29" y="-1.60" angle="90.00" type="type1" speed="12.60" pos="732.29" lane="E0_0" slope="0.00" signals="0"/>
    </timestep>
    <timestep time="59.00">
        <vehicle id="0" x="744.90" y="-1.60" angle="90.00" type="type1" speed="12.61" pos="744.90" lane="E0_0" slope="0.00" signals="0"/>
    </timestep>
    <timestep time="60.00">
        <vehicle id="0" x="757.53" y="-1.60" angle="90.00" type="type1" speed="12.63" pos="757.53" lane="E0_0" slope="0.00" signals="0"/>
    </timestep>
    <timestep time="61.00">
        <vehicle id="0" x="770.19" y="-1.60" angle="90.00" type="type1" speed="12.65" pos="770.19" lane="E0_0" slope="0.00" signals="0"/>
    </timestep>
    <timestep time="62.00">
        <vehicle id="0" x="782.86" y="-1.60" angle="90.00" type="type1" speed="12.68" pos="782.86" lane="E0_0" slope="0.00" signals="0"/>
    </timestep>
    <timestep time="63.00">
        <vehicle id="0" x="795.57" y="-1.60" angle="90.00" type="type1" speed="12.70" pos="795.57" lane="E0_0" slope="0.00" signals="0"/>
    </timestep>
    <timestep time="64.00">
        <vehicle id="0" x="808.29" y="-1.60" angle="90.00" type="type1" speed="12.73" pos="808.29" lane="E0_0" slope="0.00" signals="0"/>
    </timestep>
    <timestep time="65.00">
        <vehicle id="0" x="821.05" y="-1.60" angle="90.00" type="type1" speed="12.76" pos="821.05" lane="E0_0" slope="0.00" signals="0"/>
    </timestep>
    <timestep time="66.00">
        <vehicle id="0" x="833.83" y="-1.60" angle="90.00" type="type1" speed="12.79" pos="833.83" lane="E0_0" slope="0.00" signals="0"/>
    </timestep>
    <timestep time="67.00">
        <vehicle id="0" x="846.65" y="-1.60" angle="90.00" type="type1" speed="12.82" pos="846.65" lane="E0_0" slope="0.00" signals="0"/>
    </timestep>
    <timestep time="68.00">
        <vehicle id="0" x="859.51" y="-1.60" angle="90.00" type="type1" speed="12.86" pos="859.51" lane="E0_0" slope="0.00" signals="0"/>
    </timestep>
    <timestep time="69.00">
        <vehicle id="0" x="872.40" y="-1.60" angle="90.00" type="type1" speed="12.90" pos="872.40" lane="E0_0" slope="0.00" signals="0"/>
    </timestep>
    <timestep time="70.00">
        <vehicle id="0" x="885.35" y="-1.60" angle="90.00" type="type1" speed="12.94" pos="885.35" lane="E0_0" slope="0.00" signals="0"/>
    </timestep>
    <timestep time="71.00">
        <vehicle id="0" x="898.34" y="-1.60" angle="90.00" type="type1" speed="12.99" pos="898.34" lane="E0_0" slope="0.00" signals="0"/>
    </timestep>
    <timestep time="72.00">
        <vehicle id="0" x="911.38" y="-1.60" angle="90.00" type="type1" speed="13.04" pos="911.38" lane="E0_0" slope="0.00" signals="0"/>
    </timestep>
    <timestep time="73.00">
        <vehicle id="0" x="924.48" y="-1.60" angle="90.00" type="type1" speed="13.10" pos="924.48" lane="E0_0" slope="0.00" signals="0"/>
    </timestep>
    <timestep time="74.00">
        <vehicle id="0" x="937.66" y="-1.60" angle="90.00" type="type1" speed="13.17" pos="937.66" lane="E0_0" slope="0.00" signals="0"/>
    </timestep>
    <timestep time="75.00">
        <vehicle id="0" x="950.91" y="-1.60" angle="90.00" type="type1" speed="13.25" pos="950.91" lane="E0_0" slope="0.00" signals="0"/>
    </timestep>
    <timestep time="76.00">
        <vehicle id="0" x="964.24" y="-1.60" angle="90.00" type="type1" speed="13.34" pos="964.24" lane="E0_0" slope="0.00" signals="0"/>
    </timestep>
    <timestep time="77.00">
        <vehicle id="0" x="977.68" y="-1.60" angle="90.00" type="type1" speed="13.43" pos="977.68" lane="E0_0" slope="0.00" signals="0"/>
    </timestep>
    <timestep time="78.00">
        <vehicle id="0" x="991.22" y="-1.60" angle="90.00" type="type1" speed="13.55" pos="991.22" lane="E0_0" slope="0.00" signals="0"/>
    </timestep>
    <timestep time="79.00">
        <vehicle id="0" x="1004.90" y="-1.60" angle="90.00" type="type1" speed="13.68" pos="1004.90" lane="E0_0" slope="0.00" signals="0"/>
    </timestep>
    <timestep time="80.00">
        <vehicle id="0" x="1018.80" y="-1.60" angle="90.00" type="type1" speed="13.90" pos="1018.80" lane="E0_0" slope="0.00" signals="0"/>
    </timestep>
    <timestep time="81.00">
        <vehicle id="0" x="1032.95" y="-1.60" angle="90.00" type="type1" speed="14.15" pos="1032.95" lane="E0_0" slope="0.00" signals="0"/>
    </timestep>
    <timestep time="82.00">
        <vehicle id="0" x="1047.38" y="-1.60" angle="90.00" type="type1" speed="14.43" pos="1047.38" lane="E0_0" slope="0.00" signals="0"/>
    </timestep>
    <timestep time="83.00">
        <vehicle id="0" x="1062.15" y="-1.60" angle="90.00" type="type1" speed="14.77" pos="1062.15" lane="E0_0" slope="0.00" signals="0"/>
    </timestep>
    <timestep time="84.00">
        <vehicle id="0" x="1077.31" y="-1.60" angle="90.00" type="type1" speed="15.16" pos="1077.31" lane="E0_0" slope="0.00" signals="0"/>
    </timestep>
    <timestep time="85.00">
        <vehicle id="0" x="1092.95" y="-1.60" angle="90.00" type="type1" speed="15.64" pos="1092.95" lane="E0_0" slope="0.00" signals="0"/>
    </timestep>
    <timestep time="86.00">
        <vehicle id="0" x="1109.09" y="-1.60" angle="90.00" type="type1" speed="16.14" pos="1109.09" lane="E0_0" slope="0.00" signals="0"/>
    </timestep>
    <timestep time="87.00">
        <vehicle id="0" x="1125.74" y="-1.60" angle="90.00" type="type1" speed="16.64" pos="1125.74" lane="E0_0" slope="0.00" signals="0"/>
    </timestep>
    <timestep time="88.00">
        <vehicle id="0" x="1142.88" y="-1.60" angle="90.00" type="type1" speed="17.14" pos="1142.88" lane="E0_0" slope="0.00" signals="0"/>
    </timestep>
    <timestep time="89.00">
        <vehicle id="0" x="1160.10" y="-1.60" angle="90.00" type="type1" speed="17.22" pos="1160.10" lane="E0_0" slope="0.00" signals="0"/>
    </timestep>
    <timestep time="90.00">
        <vehicle id="0" x="1177.32" y="-1.60" angle="90.00" type="type1" speed="17.22" pos="1177.32" lane="E0_0" slope="0.00" signals="0"/>
    </timestep>
    <timestep time="91.00">
        <vehicle id="0" x="1194.55" y="-1.60" angle="90.00" type="type1" speed="17.22" pos="1194.55" lane="E0_0" slope="0.00" signals="0"/>
    </timestep>
    <timestep time="92.00">
        <vehicle id="0" x="1211.67" y="-1.60" angle="90.00" type="type1" speed="17.22" pos="11.67" lane="E1_0" slope="0.00" signals="0"/>
    </timestep>
    <timestep time="93.00">
        <vehicle id="0" x="1229.39" y="-1.60" angle="90.00" type="type1" speed="17.72" pos="29.39" lane="E1_0" slope="0.00" signals="0"/>
    </timestep>
    <timestep time="94.00">
        <vehicle id="0" x="1247.61" y="-1.60" angle="90.00" type="type1" speed="18.22" pos="47.61" lane="E1_0" slope="0.00" signals="0"/>
    </timestep>
    <timestep time="95.00">
        <vehicle id="0" x="1266.33" y="-1.60" angle="90.00" type="type1" speed="18.72" pos="66.33" lane="E1_0" slope="0.00" signals="0"/>
    </timestep>
    <timestep time="96.00">
        <vehicle id="0" x="1285.56" y="-1.60" angle="90.00" type="type1" speed="19.22" pos="85.56" lane="E1_0" slope="0.00" signals="0"/>
    </timestep>
    <timestep time="97.00">
        <vehicle id="0" x="1305.28" y="-1.60" angle="90.00" type="type1" speed="19.72" pos="105.28" lane="E1_0" slope="0.00" signals="0"/>
    </timestep>
    <timestep time="98.00">
        <vehicle id="0" x="1325.11" y="-1.60" angle="90.00" type="type1" speed="19.83" pos="125.11" lane="E1_0" slope="0.00" signals="0"/>
    </timestep>
    <timestep time="99.00">
        <vehicle id="0" x="1344.92" y="-1.60" angle="90.00" type="type1" speed="19.81" pos="144.92" lane="E1_0" slope="0.00" signals="0"/>
    </timestep>
    <timestep time="100.00">
        <vehicle id="0" x="1364.71" y="-1.60" angle="90.00" type="type1" speed="19.79" pos="164.71" lane="E1_0" slope="0.00" signals="0"/>
    </timestep>
    <timestep time="101.00">
        <vehicle id="0" x="1384.48" y="-1.60" angle="90.00" type="type1" speed="19.77" pos="184.48" lane="E1_0" slope="0.00" signals="0"/>
    </timestep>
    <timestep time="102.00">
        <vehicle id="0" x="1404.22" y="-1.60" angle="90.00" type="type1" speed="19.74" pos="204.22" lane="E1_0" slope="0.00" signals="0"/>
    </timestep>
    <timestep time="103.00">
        <vehicle id="0" x="1423.94" y="-1.60" angle="90.00" type="type1" speed="19.72" pos="223.94" lane="E1_0" slope="0.00" signals="0"/>
    </timestep>
    <timestep time="104.00">
        <vehicle id="0" x="1443.64" y="-1.60" angle="90.00" type="type1" speed="19.69" pos="243.64" lane="E1_0" slope="0.00" signals="0"/>
    </timestep>
    <timestep time="105.00">
        <vehicle id="0" x="1463.31" y="-1.60" angle="90.00" type="type1" speed="19.67" pos="263.31" lane="E1_0" slope="0.00" signals="0"/>
    </timestep>
    <timestep time="106.00">
        <vehicle id="0" x="1482.95" y="-1.60" angle="90.00" type="type1" speed="19.64" pos="282.95" lane="E1_0" slope="0.00" signals="0"/>
    </timestep>
    <timestep time="107.00">
        <vehicle id="0" x="1502.56" y="-1.60" angle="90.00" type="type1" speed="19.61" pos="302.56" lane="E1_0" slope="0.00" signals="0"/>
    </timestep>
    <timestep time="108.00">
        <vehicle id="0" x="1522.14" y="-1.60" angle="90.00" type="type1" speed="19.58" pos="322.14" lane="E1_0" slope="0.00" signals="0"/>
    </timestep>
    <timestep time="109.00">
        <vehicle id="0" x="1541.69" y="-1.60" angle="90.00" type="type1" speed="19.55" pos="341.69" lane="E1_0" slope="0.00" signals="0"/>
    </timestep>
    <timestep time="110.00">
        <vehicle id="0" x="1561.21" y="-1.60" angle="90.00" type="type1" speed="19.52" pos="361.21" lane="E1_0" slope="0.00" signals="0"/>
    </timestep>
    <timestep time="111.00">
        <vehicle id="0" x="1580.70" y="-1.60" angle="90.00" type="type1" speed="19.49" pos="380.70" lane="E1_0" slope="0.00" signals="0"/>
    </timestep>
    <timestep time="112.00">
        <vehicle id="0" x="1600.16" y="-1.60" angle="90.00" type="type1" speed="19.46" pos="400.16" lane="E1_0" slope="0.00" signals="0"/>
    </timestep>
    <timestep time="113.00">
        <vehicle id="0" x="1619.58" y="-1.60" angle="90.00" type="type1" speed="19.42" pos="419.58" lane="E1_0" slope="0.00" signals="0"/>
    </timestep>
    <timestep time="114.00">
        <vehicle id="0" x="1638.97" y="-1.60" angle="90.00" type="type1" speed="19.39" pos="438.97" lane="E1_0" slope="0.00" signals="0"/>
    </timestep>
    <timestep time="115.00">
        <vehicle id="0" x="1658.32" y="-1.60" angle="90.00" type="type1" speed="19.35" pos="458.32" lane="E1_0" slope="0.00" signals="0"/>
    </timestep>
    <timestep time="116.00">
        <vehicle id="0" x="1677.63" y="-1.60" angle="90.00" type="type1" speed="19.31" pos="477.63" lane="E1_0" slope="0.00" signals="0"/>
    </timestep>
    <timestep time="117.00">
        <vehicle id="0" x="1696.90" y="-1.60" angle="90.00" type="type1" speed="19.27" pos="496.90" lane="E1_0" slope="0.00" signals="0"/>
    </timestep>
    <timestep time="118.00">
        <vehicle id="0" x="1716.14" y="-1.60" angle="90.00" type="type1" speed="19.23" pos="516.14" lane="E1_0" slope="0.00" signals="0"/>
    </timestep>
    <timestep time="119.00">
        <vehicle id="0" x="1735.33" y="-1.60" angle="90.00" type="type1" speed="19.19" pos="535.33" lane="E1_0" slope="0.00" signals="0"/>
    </timestep>
    <timestep time="120.00">
        <vehicle id="0" x="1754.48" y="-1.60" angle="90.00" type="type1" speed="19.15" pos="554.48" lane="E1_0" slope="0.00" signals="0"/>
    </timestep>
    <timestep time="121.00">
        <vehicle id="0" x="1773.59" y="-1.60" angle="90.00" type="type1" speed="19.11" pos="573.59" lane="E1_0" slope="0.00" signals="0"/>
    </timestep>
    <timestep time="122.00">
        <vehicle id="0" x="1792.65" y="-1.60" angle="90.00" type="type1" speed="19.06" pos="592.65" lane="E1_0" slope="0.00" signals="0"/>
    </timestep>
    <timestep time="123.00">
        <vehicle id="0" x="1811.66" y="-1.60" angle="90.00" type="type1" speed="19.01" pos="611.66" lane="E1_0" slope="0.00" signals="0"/>
    </timestep>
    <timestep time="124.00">
        <vehicle id="0" x="1830.63" y="-1.60" angle="90.00" type="type1" speed="18.96" pos="630.63" lane="E1_0" slope="0.00" signals="0"/>
    </timestep>
    <timestep time="125.00">
        <vehicle id="0" x="1849.54" y="-1.60" angle="90.00" type="type1" speed="18.91" pos="649.54" lane="E1_0" slope="0.00" signals="0"/>
    </timestep>
    <timestep time="126.00">
        <vehicle id="0" x="1868.40" y="-1.60" angle="90.00" type="type1" speed="18.86" pos="668.40" lane="E1_0" slope="0.00" signals="0"/>
    </timestep>
    <timestep time="127.00">
        <vehicle id="0" x="1887.20" y="-1.60" angle="90.00" type="type1" speed="18.80" pos="687.20" lane="E1_0" slope="0.00" signals="0"/>
    </timestep>
    <timestep time="128.00">
        <vehicle id="0" x="1905.94" y="-1.60" angle="90.00" type="type1" speed="18.74" pos="705.94" lane="E1_0" slope="0.00" signals="0"/>
    </timestep>
    <timestep time="129.00">
        <vehicle id="0" x="1924.62" y="-1.60" angle="90.00" type="type1" speed="18.68" pos="724.62" lane="E1_0" slope="0.00" signals="0"/>
    </timestep>
    <timestep time="130.00">
        <vehicle id="0" x="1943.24" y="-1.60" angle="90.00" type="type1" speed="18.62" pos="743.24" lane="E1_0" slope="0.00" signals="0"/>
    </timestep>
    <timestep time="131.00">
        <vehicle id="0" x="1961.79" y="-1.60" angle="90.00" type="type1" speed="18.55" pos="761.79" lane="E1_0" slope="0.00" signals="0"/>
    </timestep>
    <timestep time="132.00">
        <vehicle id="0" x="1980.27" y="-1.60" angle="90.00" type="type1" speed="18.48" pos="780.27" lane="E1_0" slope="0.00" signals="0"/>
    </timestep>
    <timestep time="133.00">
        <vehicle id="0" x="1998.67" y="-1.60" angle="90.00" type="type1" speed="18.40" pos="798.67" lane="E1_0" slope="0.00" signals="0"/>
    </timestep>
    <timestep time="134.00">
        <vehicle id="0" x="2016.99" y="-1.60" angle="90.00" type="type1" speed="18.32" pos="816.99" lane="E1_0" slope="0.00" signals="0"/>
    </timestep>
    <timestep time="135.00">
        <vehicle id="0" x="2035.23" y="-1.60" angle="90.00" type="type1" speed="18.24" pos="835.23" lane="E1_0" slope="0.00" signals="0"/>
    </timestep>
    <timestep time="136.00">
        <vehicle id="0" x="2053.38" y="-1.60" angle="90.00" type="type1" speed="18.15" pos="853.38" lane="E1_0" slope="0.00" signals="0"/>
    </timestep>
    <timestep time="137.00">
        <vehicle id="0" x="2071.44" y="-1.60" angle="90.00" type="type1" speed="18.06" pos="871.44" lane="E1_0" slope="0.00" signals="0"/>
    </timestep>
    <timestep time="138.00">
        <vehicle id="0" x="2089.40" y="-1.60" angle="90.00" type="type1" speed="17.96" pos="889.40" lane="E1_0" slope="0.00" signals="0"/>
    </timestep>
    <timestep time="139.00">
        <vehicle id="0" x="2107.27" y="-1.60" angle="90.00" type="type1" speed="17.87" pos="907.27" lane="E1_0" slope="0.00" signals="0"/>
    </timestep>
    <timestep time="140.00">
        <vehicle id="0" x="2125.06" y="-1.60" angle="90.00" type="type1" speed="17.79" pos="925.06" lane="E1_0" slope="0.00" signals="0"/>
    </timestep>
    <timestep time="141.00">
        <vehicle id="0" x="2142.78" y="-1.60" angle="90.00" type="type1" speed="17.72" pos="942.78" lane="E1_0" slope="0.00" signals="0"/>
    </timestep>
    <timestep time="142.00">
        <vehicle id="0" x="2160.44" y="-1.60" angle="90.00" type="type1" speed="17.66" pos="960.44" lane="E1_0" slope="0.00" signals="0"/>
    </timestep>
    <timestep time="143.00">
        <vehicle id="0" x="2178.04" y="-1.60" angle="90.00" type="type1" speed="17.60" pos="978.04" lane="E1_0" slope="0.00" signals="0"/>
    </timestep>
    <timestep time="144.00">
        <vehicle id="0" x="2195.59" y="-1.60" angle="90.00" type="type1" speed="17.55" pos="995.59" lane="E1_0" slope="0.00" signals="0"/>
    </timestep>
    <timestep time="145.00">
        <vehicle id="0" x="2212.99" y="-1.60" angle="90.00" type="type1" speed="17.50" pos="12.99" lane="E2_0" slope="0.00" signals="0"/>
    </timestep>
    <timestep time="146.00">
        <vehicle id="0" x="2231.00" y="-1.60" angle="90.00" type="type1" speed="18.00" pos="31.00" lane="E2_0" slope="0.00" signals="0"/>
    </timestep>
    <timestep time="147.00">
        <vehicle id="0" x="2249.50" y="-1.60" angle="90.00" type="type1" speed="18.50" pos="49.50" lane="E2_0" slope="0.00" signals="0"/>
    </timestep>
    <timestep time="148.00">
        <vehicle id="0" x="2268.50" y="-1.60" angle="90.00" type="type1" speed="19.00" pos="68.50" lane="E2_0" slope="0.00" signals="0"/>
    </timestep>
    <timestep time="149.00">
        <vehicle id="0" x="2288.00" y="-1.60" angle="90.00" type="type1" speed="19.50" pos="88.00" lane="E2_0" slope="0.00" signals="0"/>
    </timestep>
    <timestep time="150.00">
        <vehicle id="0" x="2308.00" y="-1.60" angle="90.00" type="type1" speed="20.00" pos="108.00" lane="E2_0" slope="0.00" signals="0"/>
    </timestep>
    <timestep time="151.00">
        <vehicle id="0" x="2328.51" y="-1.60" angle="90.00" type="type1" speed="20.50" pos="128.51" lane="E2_0" slope="0.00" signals="0"/>
    </timestep>
    <timestep time="152.00">
        <vehicle id="0" x="2349.33" y="-1.60" angle="90.00" type="type1" speed="20.82" pos="149.33" lane="E2_0" slope="0.00" signals="0"/>
    </timestep>
    <timestep time="153.00">
        <vehicle id="0" x="2370.14" y="-1.60" angle="90.00" type="type1" speed="20.81" pos="170.14" lane="E2_0" slope="0.00" signals="0"/>
    </timestep>
    <timestep time="154.00">
        <vehicle id="0" x="2390.95" y="-1.60" angle="90.00" type="type1" speed="20.80" pos="190.95" lane="E2_0" slope="0.00" signals="0"/>
    </timestep>
    <timestep time="155.00">
        <vehicle id="0" x="2411.74" y="-1.60" angle="90.00" type="type1" speed="20.79" pos="211.74" lane="E2_0" slope="0.00" signals="0"/>
    </timestep>
    <timestep time="156.00">
        <vehicle id="0" x="2432.51" y="-1.60" angle="90.00" type="type1" speed="20.78" pos="232.51" lane="E2_0" slope="0.00" signals="0"/>
    </timestep>
    <timestep time="157.00">
        <vehicle id="0" x="2453.28" y="-1.60" angle="90.00" type="type1" speed="20.76" pos="253.28" lane="E2_0" slope="0.00" signals="0"/>
    </timestep>